-----
*** PROGRAM STARTED AT Wed Apr 24 15:18:10 2013 WITH PID 3782 ***
1 24 15 18
4 24 15 18
storage dallas float argument required, not NoneType
storage dallas float argument required, not NoneType
storage dallas float argument required, not NoneType
storage dallas float argument required, not NoneType
storage dallas float argument required, not NoneType
storage dallas float argument required, not NoneType
storage dallas float argument required, not NoneType
storage dallas float argument required, not NoneType
storage dallas float argument required, not NoneType
storage dallas float argument required, not NoneType
storage dallas float argument required, not NoneType
storage dallas float argument required, not NoneType
storage dallas float argument required, not NoneType
storage dallas float argument required, not NoneType
storage dallas float argument required, not NoneType
storage dallas float argument required, not NoneType
storage dallas float argument required, not NoneType
storage dallas float argument required, not NoneType
storage dallas float argument required, not NoneType
storage dallas float argument required, not NoneType
storage dallas float argument required, not NoneType
storage dallas float argument required, not NoneType
storage dallas float argument required, not NoneType
storage dallas float argument required, not NoneType
storage dallas float argument required, not NoneType
storage dallas float argument required, not NoneType
storage dallas float argument required, not NoneType
storage dallas float argument required, not NoneType
storage dallas float argument required, not NoneType
storage dallas float argument required, not NoneType
storage dallas float argument required, not NoneType
storage dallas float argument required, not NoneType
storage dallas float argument required, not NoneType
storage dallas float argument required, not NoneType
storage dallas float argument required, not NoneType
storage dallas float argument required, not NoneType
storage dallas float argument required, not NoneType
storage dallas float argument required, not NoneType
storage dallas float argument required, not NoneType
storage dallas float argument required, not NoneType
storage dallas float argument required, not NoneType
storage dallas float argument required, not NoneType
storage dallas float argument required, not NoneType
storage dallas float argument required, not NoneType
storage dallas float argument required, not NoneType
storage dallas float argument required, not NoneType
storage dallas float argument required, not NoneType
storage dallas float argument required, not NoneType
storage dallas float argument required, not NoneType
storage dallas float argument required, not NoneType
storage dallas float argument required, not NoneType
storage dallas float argument required, not NoneType
storage dallas float argument required, not NoneType
storage dallas float argument required, not NoneType
storage dallas float argument required, not NoneType
storage dallas float argument required, not NoneType
storage dallas float argument required, not NoneType
storage dallas float argument required, not NoneType
storage dallas float argument required, not NoneType
storage dallas float argument required, not NoneType
storage dallas float argument required, not NoneType
storage dallas float argument required, not NoneType
storage dallas float argument required, not NoneType
storage dallas float argument required, not NoneType
storage dallas float argument required, not NoneType
storage dallas float argument required, not NoneType
storage dallas float argument required, not NoneType
storage dallas float argument required, not NoneType
storage dallas float argument required, not NoneType
storage dallas float argument required, not NoneType
storage dallas float argument required, not NoneType
storage dallas float argument required, not NoneType
storage dallas float argument required, not NoneType
storage dallas float argument required, not NoneType
storage dallas float argument required, not NoneType
storage dallas float argument required, not NoneType
storage dallas float argument required, not NoneType
storage dallas float argument required, not NoneType
storage dallas float argument required, not NoneType
storage dallas float argument required, not NoneType
storage dallas float argument required, not NoneType
storage dallas float argument required, not NoneType
storage dallas float argument required, not NoneType
storage dallas float argument required, not NoneType
storage dallas float argument required, not NoneType
storage dallas float argument required, not NoneType
storage dallas float argument required, not NoneType
storage dallas float argument required, not NoneType
storage dallas float argument required, not NoneType
storage dallas float argument required, not NoneType
storage dallas float argument required, not NoneType
storage dallas float argument required, not NoneType
storage dallas float argument required, not NoneType
storage dallas float argument required, not NoneType
storage dallas float argument required, not NoneType
storage dallas float argument required, not NoneType
storage dallas float argument required, not NoneType
storage dallas float argument required, not NoneType
storage dallas float argument required, not NoneType
storage dallas float argument required, not NoneType
storage dallas float argument required, not NoneType
storage dallas float argument required, not NoneType
storage dallas float argument required, not NoneType
storage dallas float argument required, not NoneType
storage dallas float argument required, not NoneType
storage dallas float argument required, not NoneType
storage dallas float argument required, not NoneType
storage dallas float argument required, not NoneType
storage dallas float argument required, not NoneType
storage dallas float argument required, not NoneType
storage dallas float argument required, not NoneType
storage dallas float argument required, not NoneType
storage dallas float argument required, not NoneType
storage dallas float argument required, not NoneType
storage dallas float argument required, not NoneType
storage dallas float argument required, not NoneType
storage dallas float argument required, not NoneType
storage dallas float argument required, not NoneType
storage dallas float argument required, not NoneType
storage dallas float argument required, not NoneType
storage dallas float argument required, not NoneType
storage dallas float argument required, not NoneType
storage dallas float argument required, not NoneType
storage dallas float argument required, not NoneType
storage dallas float argument required, not NoneType
storage dallas float argument required, not NoneType
storage dallas float argument required, not NoneType
storage dallas float argument required, not NoneType
storage dallas float argument required, not NoneType
storage dallas float argument required, not NoneType
storage dallas float argument required, not NoneType
storage dallas float argument required, not NoneType
storage dallas float argument required, not NoneType
storage dallas float argument required, not NoneType
storage dallas float argument required, not NoneType
storage dallas float argument required, not NoneType
storage dallas float argument required, not NoneType
storage dallas float argument required, not NoneType
storage dallas float argument required, not NoneType
storage dallas float argument required, not NoneType
storage dallas float argument required, not NoneType
storage dallas float argument required, not NoneType
storage dallas float argument required, not NoneType
storage dallas float argument required, not NoneType
storage dallas float argument required, not NoneType
storage dallas float argument required, not NoneType
storage dallas float argument required, not NoneType
storage dallas float argument required, not NoneType
storage dallas float argument required, not NoneType
storage dallas float argument required, not NoneType
storage dallas float argument required, not NoneType
storage dallas float argument required, not NoneType
storage dallas float argument required, not NoneType
storage dallas float argument required, not NoneType
storage dallas float argument required, not NoneType
storage dallas float argument required, not NoneType
storage dallas float argument required, not NoneType
storage dallas float argument required, not NoneType
storage dallas float argument required, not NoneType
storage dallas float argument required, not NoneType
storage dallas float argument required, not NoneType
storage dallas float argument required, not NoneType
storage dallas float argument required, not NoneType
storage dallas float argument required, not NoneType
storage dallas float argument required, not NoneType
storage dallas float argument required, not NoneType
storage dallas float argument required, not NoneType
storage dallas float argument required, not NoneType
storage dallas float argument required, not NoneType
storage dallas float argument required, not NoneType
storage dallas float argument required, not NoneType
storage dallas float argument required, not NoneType
storage dallas float argument required, not NoneType
storage dallas float argument required, not NoneType
storage dallas float argument required, not NoneType
storage dallas float argument required, not NoneType
storage dallas float argument required, not NoneType
storage dallas float argument required, not NoneType
storage dallas float argument required, not NoneType
storage dallas float argument required, not NoneType
storage dallas float argument required, not NoneType
storage dallas float argument required, not NoneType
storage dallas float argument required, not NoneType
storage dallas float argument required, not NoneType
storage dallas float argument required, not NoneType
storage dallas float argument required, not NoneType
storage dallas float argument required, not NoneType
storage dallas float argument required, not NoneType
storage dallas float argument required, not NoneType
storage dallas float argument required, not NoneType
storage dallas float argument required, not NoneType
storage dallas float argument required, not NoneType
storage dallas float argument required, not NoneType
storage dallas float argument required, not NoneType
storage dallas float argument required, not NoneType
storage dallas float argument required, not NoneType
storage dallas float argument required, not NoneType
storage dallas float argument required, not NoneType
storage dallas float argument required, not NoneType
storage dallas float argument required, not NoneType
storage dallas float argument required, not NoneType
storage dallas float argument required, not NoneType
storage dallas float argument required, not NoneType
storage dallas float argument required, not NoneType
storage dallas float argument required, not NoneType
storage dallas float argument required, not NoneType
storage dallas float argument required, not NoneType
storage dallas float argument required, not NoneType
storage dallas float argument required, not NoneType
storage dallas float argument required, not NoneType
storage dallas float argument required, not NoneType
storage dallas float argument required, not NoneType
storage dallas float argument required, not NoneType
storage dallas float argument required, not NoneType
storage dallas float argument required, not NoneType
storage dallas float argument required, not NoneType
storage dallas float argument required, not NoneType
storage dallas float argument required, not NoneType
storage dallas float argument required, not NoneType
storage dallas float argument required, not NoneType
storage dallas float argument required, not NoneType
storage dallas float argument required, not NoneType
storage dallas float argument required, not NoneType
storage dallas float argument required, not NoneType
storage dallas float argument required, not NoneType
storage dallas float argument required, not NoneType
storage dallas float argument required, not NoneType
storage dallas float argument required, not NoneType
storage dallas float argument required, not NoneType
storage dallas float argument required, not NoneType
storage dallas float argument required, not NoneType
storage dallas float argument required, not NoneType
storage dallas float argument required, not NoneType
storage dallas float argument required, not NoneType
storage dallas float argument required, not NoneType
storage dallas float argument required, not NoneType
storage dallas float argument required, not NoneType
storage dallas float argument required, not NoneType
storage dallas float argument required, not NoneType
storage dallas float argument required, not NoneType
storage dallas float argument required, not NoneType
storage dallas float argument required, not NoneType
storage dallas float argument required, not NoneType
storage dallas float argument required, not NoneType
storage dallas float argument required, not NoneType
storage dallas float argument required, not NoneType
storage dallas float argument required, not NoneType
storage dallas float argument required, not NoneType
storage dallas float argument required, not NoneType
storage dallas float argument required, not NoneType
storage dallas float argument required, not NoneType
storage dallas float argument required, not NoneType
storage dallas float argument required, not NoneType
storage dallas float argument required, not NoneType
storage dallas float argument required, not NoneType
storage dallas float argument required, not NoneType
storage dallas float argument required, not NoneType
storage dallas float argument required, not NoneType
storage dallas float argument required, not NoneType
storage dallas float argument required, not NoneType
storage dallas float argument required, not NoneType
storage dallas float argument required, not NoneType
storage dallas float argument required, not NoneType
storage dallas float argument required, not NoneType
storage dallas float argument required, not NoneType
storage dallas float argument required, not NoneType
storage dallas float argument required, not NoneType
storage dallas float argument required, not NoneType
storage dallas float argument required, not NoneType
storage dallas float argument required, not NoneType
storage dallas float argument required, not NoneType
storage dallas float argument required, not NoneType
storage dallas float argument required, not NoneType
storage dallas float argument required, not NoneType
storage dallas float argument required, not NoneType
storage dallas float argument required, not NoneType
storage dallas float argument required, not NoneType
storage dallas float argument required, not NoneType
storage dallas float argument required, not NoneType
storage dallas float argument required, not NoneType
storage dallas float argument required, not NoneType
storage dallas float argument required, not NoneType
storage dallas float argument required, not NoneType
storage dallas float argument required, not NoneType
storage dallas float argument required, not NoneType
storage dallas float argument required, not NoneType
storage dallas float argument required, not NoneType
storage dallas float argument required, not NoneType
storage dallas float argument required, not NoneType
storage dallas float argument required, not NoneType
storage dallas float argument required, not NoneType
storage dallas float argument required, not NoneType
storage dallas float argument required, not NoneType
storage dallas float argument required, not NoneType
storage dallas float argument required, not NoneType
storage dallas float argument required, not NoneType
storage dallas float argument required, not NoneType
storage dallas float argument required, not NoneType
storage dallas float argument required, not NoneType
storage dallas float argument required, not NoneType
storage dallas float argument required, not NoneType
storage dallas float argument required, not NoneType
storage dallas float argument required, not NoneType
storage dallas float argument required, not NoneType
storage dallas float argument required, not NoneType
storage dallas float argument required, not NoneType
storage dallas float argument required, not NoneType
storage dallas float argument required, not NoneType
storage dallas float argument required, not NoneType
storage dallas float argument required, not NoneType
storage dallas float argument required, not NoneType
storage dallas float argument required, not NoneType
storage dallas float argument required, not NoneType
storage dallas float argument required, not NoneType
storage dallas float argument required, not NoneType
storage dallas float argument required, not NoneType
storage dallas float argument required, not NoneType
storage dallas float argument required, not NoneType
storage dallas float argument required, not NoneType
storage dallas float argument required, not NoneType
storage dallas float argument required, not NoneType
storage dallas float argument required, not NoneType
storage dallas float argument required, not NoneType
storage dallas float argument required, not NoneType
storage dallas float argument required, not NoneType
storage dallas float argument required, not NoneType
storage dallas float argument required, not NoneType
storage dallas float argument required, not NoneType
storage dallas float argument required, not NoneType
storage dallas float argument required, not NoneType
storage dallas float argument required, not NoneType
storage dallas float argument required, not NoneType
storage dallas float argument required, not NoneType
storage dallas float argument required, not NoneType
storage dallas float argument required, not NoneType
storage dallas float argument required, not NoneType
storage dallas float argument required, not NoneType
storage dallas float argument required, not NoneType
storage dallas float argument required, not NoneType
storage dallas float argument required, not NoneType
storage dallas float argument required, not NoneType
storage dallas float argument required, not NoneType
storage dallas float argument required, not NoneType
storage dallas float argument required, not NoneType
storage dallas float argument required, not NoneType
storage dallas float argument required, not NoneType
storage dallas float argument required, not NoneType
storage dallas float argument required, not NoneType
storage dallas float argument required, not NoneType
storage dallas float argument required, not NoneType
storage dallas float argument required, not NoneType
storage dallas float argument required, not NoneType
storage dallas float argument required, not NoneType
storage dallas float argument required, not NoneType
storage dallas float argument required, not NoneType
storage dallas float argument required, not NoneType
storage dallas float argument required, not NoneType
storage dallas float argument required, not NoneType
storage dallas float argument required, not NoneType
storage dallas float argument required, not NoneType
storage dallas float argument required, not NoneType
storage dallas float argument required, not NoneType
storage dallas float argument required, not NoneType
storage dallas float argument required, not NoneType
storage dallas float argument required, not NoneType
storage dallas float argument required, not NoneType
storage dallas float argument required, not NoneType
storage dallas float argument required, not NoneType
storage dallas float argument required, not NoneType
storage dallas float argument required, not NoneType
storage dallas float argument required, not NoneType
storage dallas float argument required, not NoneType
storage dallas float argument required, not NoneType
storage dallas float argument required, not NoneType
storage dallas float argument required, not NoneType
storage dallas float argument required, not NoneType
storage dallas float argument required, not NoneType
storage dallas float argument required, not NoneType
storage dallas float argument required, not NoneType
storage dallas float argument required, not NoneType
storage dallas float argument required, not NoneType
storage dallas float argument required, not NoneType
storage dallas float argument required, not NoneType
storage dallas float argument required, not NoneType
storage dallas float argument required, not NoneType
storage dallas float argument required, not NoneType
storage dallas float argument required, not NoneType
storage dallas float argument required, not NoneType
storage dallas float argument required, not NoneType
storage dallas float argument required, not NoneType
storage dallas float argument required, not NoneType
storage dallas float argument required, not NoneType
storage dallas float argument required, not NoneType
storage dallas float argument required, not NoneType
storage dallas float argument required, not NoneType
storage dallas float argument required, not NoneType
storage dallas float argument required, not NoneType
storage dallas float argument required, not NoneType
storage dallas float argument required, not NoneType
storage dallas float argument required, not NoneType
storage dallas float argument required, not NoneType
storage dallas float argument required, not NoneType
storage dallas float argument required, not NoneType
storage dallas float argument required, not NoneType
storage dallas float argument required, not NoneType
storage dallas float argument required, not NoneType
storage dallas float argument required, not NoneType
storage dallas float argument required, not NoneType
storage dallas float argument required, not NoneType
storage dallas float argument required, not NoneType
storage dallas float argument required, not NoneType
storage dallas float argument required, not NoneType
storage dallas float argument required, not NoneType
storage dallas float argument required, not NoneType
storage dallas float argument required, not NoneType
storage dallas float argument required, not NoneType
storage dallas float argument required, not NoneType
storage dallas float argument required, not NoneType
storage dallas float argument required, not NoneType
storage dallas float argument required, not NoneType
storage dallas float argument required, not NoneType
storage dallas float argument required, not NoneType
storage dallas float argument required, not NoneType
storage dallas float argument required, not NoneType
storage dallas float argument required, not NoneType
storage dallas float argument required, not NoneType
storage dallas float argument required, not NoneType
storage dallas float argument required, not NoneType
storage dallas float argument required, not NoneType
storage dallas float argument required, not NoneType
storage dallas float argument required, not NoneType
storage dallas float argument required, not NoneType
storage dallas float argument required, not NoneType
storage dallas float argument required, not NoneType
storage dallas float argument required, not NoneType
storage dallas float argument required, not NoneType
storage dallas float argument required, not NoneType
storage dallas float argument required, not NoneType
storage dallas float argument required, not NoneType
storage dallas float argument required, not NoneType
storage dallas float argument required, not NoneType
storage dallas float argument required, not NoneType
storage dallas float argument required, not NoneType
storage dallas float argument required, not NoneType
storage dallas float argument required, not NoneType
storage dallas float argument required, not NoneType
storage dallas float argument required, not NoneType
storage dallas float argument required, not NoneType
storage dallas float argument required, not NoneType
storage dallas float argument required, not NoneType
storage dallas float argument required, not NoneType
storage dallas float argument required, not NoneType
storage dallas float argument required, not NoneType
storage dallas float argument required, not NoneType
storage dallas float argument required, not NoneType
storage dallas float argument required, not NoneType
storage dallas float argument required, not NoneType
storage dallas float argument required, not NoneType
storage dallas float argument required, not NoneType
storage dallas float argument required, not NoneType
storage dallas float argument required, not NoneType
storage dallas float argument required, not NoneType
storage dallas float argument required, not NoneType
storage dallas float argument required, not NoneType
storage dallas float argument required, not NoneType
storage dallas float argument required, not NoneType
storage dallas float argument required, not NoneType
storage dallas float argument required, not NoneType
storage dallas float argument required, not NoneType
storage dallas float argument required, not NoneType
storage dallas float argument required, not NoneType
storage dallas float argument required, not NoneType
storage dallas float argument required, not NoneType
storage dallas float argument required, not NoneType
storage dallas float argument required, not NoneType
storage dallas float argument required, not NoneType
storage dallas float argument required, not NoneType
storage dallas float argument required, not NoneType
storage dallas float argument required, not NoneType
storage dallas float argument required, not NoneType
storage dallas float argument required, not NoneType
storage dallas float argument required, not NoneType
-----
*** PROGRAM STARTED AT Sat Apr 27 21:57:02 2013 WITH PID 1299 ***
storage dallas float argument required, not NoneType
storage dallas float argument required, not NoneType
storage dallas float argument required, not NoneType
storage dallas float argument required, not NoneType
storage dallas float argument required, not NoneType
storage dallas float argument required, not NoneType
storage dallas float argument required, not NoneType
storage dallas float argument required, not NoneType
storage dallas float argument required, not NoneType
storage dallas float argument required, not NoneType
storage dallas float argument required, not NoneType
storage dallas float argument required, not NoneType
storage dallas float argument required, not NoneType
storage dallas float argument required, not NoneType
storage dallas float argument required, not NoneType
storage dallas float argument required, not NoneType
storage dallas float argument required, not NoneType
storage dallas float argument required, not NoneType
storage dallas float argument required, not NoneType
storage dallas float argument required, not NoneType
storage dallas float argument required, not NoneType
storage dallas float argument required, not NoneType
storage dallas float argument required, not NoneType
storage dallas float argument required, not NoneType
storage dallas float argument required, not NoneType
storage dallas float argument required, not NoneType
storage dallas float argument required, not NoneType
storage dallas float argument required, not NoneType
storage dallas float argument required, not NoneType
storage dallas float argument required, not NoneType
storage dallas float argument required, not NoneType
storage dallas float argument required, not NoneType
storage dallas float argument required, not NoneType
storage dallas float argument required, not NoneType
storage dallas float argument required, not NoneType
storage dallas float argument required, not NoneType
storage dallas float argument required, not NoneType
storage dallas float argument required, not NoneType
storage dallas float argument required, not NoneType
storage dallas float argument required, not NoneType
storage dallas float argument required, not NoneType
storage dallas float argument required, not NoneType
storage dallas float argument required, not NoneType
storage dallas float argument required, not NoneType
storage dallas float argument required, not NoneType
storage dallas float argument required, not NoneType
storage dallas float argument required, not NoneType
storage dallas float argument required, not NoneType
storage dallas float argument required, not NoneType
storage dallas float argument required, not NoneType
storage dallas float argument required, not NoneType
storage dallas float argument required, not NoneType
storage dallas float argument required, not NoneType
storage dallas float argument required, not NoneType
storage dallas float argument required, not NoneType
storage dallas float argument required, not NoneType
storage dallas float argument required, not NoneType
storage dallas float argument required, not NoneType
storage dallas float argument required, not NoneType
storage dallas float argument required, not NoneType
storage dallas float argument required, not NoneType
storage dallas float argument required, not NoneType
storage dallas float argument required, not NoneType
storage dallas float argument required, not NoneType
storage dallas float argument required, not NoneType
storage dallas float argument required, not NoneType
storage dallas float argument required, not NoneType
storage dallas float argument required, not NoneType
storage dallas float argument required, not NoneType
storage dallas float argument required, not NoneType
storage dallas float argument required, not NoneType
storage dallas float argument required, not NoneType
storage dallas float argument required, not NoneType
storage dallas float argument required, not NoneType
storage dallas float argument required, not NoneType
storage dallas float argument required, not NoneType
storage dallas float argument required, not NoneType
storage dallas float argument required, not NoneType
storage dallas float argument required, not NoneType
storage dallas float argument required, not NoneType
storage dallas float argument required, not NoneType
storage dallas float argument required, not NoneType
storage dallas float argument required, not NoneType
storage dallas float argument required, not NoneType
storage dallas float argument required, not NoneType
storage dallas float argument required, not NoneType
storage dallas float argument required, not NoneType
storage dallas float argument required, not NoneType
storage dallas float argument required, not NoneType
storage dallas float argument required, not NoneType
storage dallas float argument required, not NoneType
storage dallas float argument required, not NoneType
storage dallas float argument required, not NoneType
storage dallas float argument required, not NoneType
storage dallas float argument required, not NoneType
storage dallas float argument required, not NoneType
storage dallas float argument required, not NoneType
storage dallas float argument required, not NoneType
storage dallas float argument required, not NoneType
storage dallas float argument required, not NoneType
storage dallas float argument required, not NoneType
storage dallas float argument required, not NoneType
storage dallas float argument required, not NoneType
storage dallas float argument required, not NoneType
storage dallas float argument required, not NoneType
storage dallas float argument required, not NoneType
storage dallas float argument required, not NoneType
storage dallas float argument required, not NoneType
storage dallas float argument required, not NoneType
storage dallas float argument required, not NoneType
storage dallas float argument required, not NoneType
storage dallas float argument required, not NoneType
storage dallas float argument required, not NoneType
storage dallas float argument required, not NoneType
storage dallas float argument required, not NoneType
storage dallas float argument required, not NoneType
storage dallas float argument required, not NoneType
storage dallas float argument required, not NoneType
storage dallas float argument required, not NoneType
storage dallas float argument required, not NoneType
storage dallas float argument required, not NoneType
storage dallas float argument required, not NoneType
storage dallas float argument required, not NoneType
storage dallas float argument required, not NoneType
storage dallas float argument required, not NoneType
storage dallas float argument required, not NoneType
storage dallas float argument required, not NoneType
storage dallas float argument required, not NoneType
storage dallas float argument required, not NoneType
storage dallas float argument required, not NoneType
storage dallas float argument required, not NoneType
storage dallas float argument required, not NoneType
storage dallas float argument required, not NoneType
storage dallas float argument required, not NoneType
storage dallas float argument required, not NoneType
storage dallas float argument required, not NoneType
storage dallas float argument required, not NoneType
storage dallas float argument required, not NoneType
storage dallas float argument required, not NoneType
storage dallas float argument required, not NoneType
storage dallas float argument required, not NoneType
storage dallas float argument required, not NoneType
storage dallas float argument required, not NoneType
storage dallas float argument required, not NoneType
storage dallas float argument required, not NoneType
storage dallas float argument required, not NoneType
storage dallas float argument required, not NoneType
storage dallas float argument required, not NoneType
storage dallas float argument required, not NoneType
storage dallas float argument required, not NoneType
storage dallas float argument required, not NoneType
storage dallas float argument required, not NoneType
storage dallas float argument required, not NoneType
storage dallas float argument required, not NoneType
storage dallas float argument required, not NoneType
storage dallas float argument required, not NoneType
storage dallas float argument required, not NoneType
storage dallas float argument required, not NoneType
storage dallas float argument required, not NoneType
storage dallas float argument required, not NoneType
storage dallas float argument required, not NoneType
storage dallas float argument required, not NoneType
storage dallas float argument required, not NoneType
storage dallas float argument required, not NoneType
storage dallas float argument required, not NoneType
storage dallas float argument required, not NoneType
storage dallas float argument required, not NoneType
storage dallas float argument required, not NoneType
storage dallas float argument required, not NoneType
storage dallas float argument required, not NoneType
storage dallas float argument required, not NoneType
storage dallas float argument required, not NoneType
storage dallas float argument required, not NoneType
storage dallas float argument required, not NoneType
storage dallas float argument required, not NoneType
storage dallas float argument required, not NoneType
storage dallas float argument required, not NoneType
storage dallas float argument required, not NoneType
storage dallas float argument required, not NoneType
storage dallas float argument required, not NoneType
storage dallas float argument required, not NoneType
storage dallas float argument required, not NoneType
storage dallas float argument required, not NoneType
storage dallas float argument required, not NoneType
storage dallas float argument required, not NoneType
storage dallas float argument required, not NoneType
storage dallas float argument required, not NoneType
storage dallas float argument required, not NoneType
storage dallas float argument required, not NoneType
storage dallas float argument required, not NoneType
storage dallas float argument required, not NoneType
storage dallas float argument required, not NoneType
storage dallas float argument required, not NoneType
storage dallas float argument required, not NoneType
storage dallas float argument required, not NoneType
storage dallas float argument required, not NoneType
storage dallas float argument required, not NoneType
storage dallas float argument required, not NoneType
storage dallas float argument required, not NoneType
storage dallas float argument required, not NoneType
storage dallas float argument required, not NoneType
storage dallas float argument required, not NoneType
storage dallas float argument required, not NoneType
storage dallas float argument required, not NoneType
storage dallas float argument required, not NoneType
storage dallas float argument required, not NoneType
storage dallas float argument required, not NoneType
storage dallas float argument required, not NoneType
storage dallas float argument required, not NoneType
storage dallas float argument required, not NoneType
storage dallas float argument required, not NoneType
storage dallas float argument required, not NoneType
storage dallas float argument required, not NoneType
storage dallas float argument required, not NoneType
storage dallas float argument required, not NoneType
storage dallas float argument required, not NoneType
storage dallas float argument required, not NoneType
storage dallas float argument required, not NoneType
storage dallas float argument required, not NoneType
storage dallas float argument required, not NoneType
storage dallas float argument required, not NoneType
storage dallas float argument required, not NoneType
storage dallas float argument required, not NoneType
storage dallas float argument required, not NoneType
storage dallas float argument required, not NoneType
storage dallas float argument required, not NoneType
storage dallas float argument required, not NoneType
storage dallas float argument required, not NoneType
storage dallas float argument required, not NoneType
storage dallas float argument required, not NoneType
storage dallas float argument required, not NoneType
storage dallas float argument required, not NoneType
storage dallas float argument required, not NoneType
storage dallas float argument required, not NoneType
storage dallas float argument required, not NoneType
storage dallas float argument required, not NoneType
storage dallas float argument required, not NoneType
storage dallas float argument required, not NoneType
storage dallas float argument required, not NoneType
storage dallas float argument required, not NoneType
storage dallas float argument required, not NoneType
storage dallas float argument required, not NoneType
storage dallas float argument required, not NoneType
storage dallas float argument required, not NoneType
storage dallas float argument required, not NoneType
storage dallas float argument required, not NoneType
storage dallas float argument required, not NoneType
storage dallas float argument required, not NoneType
storage dallas float argument required, not NoneType
storage dallas float argument required, not NoneType
storage dallas float argument required, not NoneType
storage dallas float argument required, not NoneType
storage dallas float argument required, not NoneType
storage dallas float argument required, not NoneType
storage dallas float argument required, not NoneType
storage dallas float argument required, not NoneType
storage dallas float argument required, not NoneType
storage dallas float argument required, not NoneType
storage dallas float argument required, not NoneType
storage dallas float argument required, not NoneType
storage dallas float argument required, not NoneType
storage dallas float argument required, not NoneType
storage dallas float argument required, not NoneType
storage dallas float argument required, not NoneType
storage dallas float argument required, not NoneType
storage dallas float argument required, not NoneType
storage dallas float argument required, not NoneType
storage dallas float argument required, not NoneType
storage dallas float argument required, not NoneType
storage dallas float argument required, not NoneType
storage dallas float argument required, not NoneType
storage dallas float argument required, not NoneType
storage dallas float argument required, not NoneType
storage dallas float argument required, not NoneType
storage dallas float argument required, not NoneType
storage dallas float argument required, not NoneType
storage dallas float argument required, not NoneType
storage dallas float argument required, not NoneType
storage dallas float argument required, not NoneType
storage dallas float argument required, not NoneType
storage dallas float argument required, not NoneType
storage dallas float argument required, not NoneType
storage dallas float argument required, not NoneType
storage dallas float argument required, not NoneType
storage dallas float argument required, not NoneType
storage dallas float argument required, not NoneType
storage dallas float argument required, not NoneType
storage dallas float argument required, not NoneType
storage dallas float argument required, not NoneType
storage dallas float argument required, not NoneType
storage dallas float argument required, not NoneType
storage dallas float argument required, not NoneType
storage dallas float argument required, not NoneType
storage dallas float argument required, not NoneType
storage dallas float argument required, not NoneType
storage dallas float argument required, not NoneType
storage dallas float argument required, not NoneType
storage dallas float argument required, not NoneType
storage dallas float argument required, not NoneType
storage dallas float argument required, not NoneType
storage dallas float argument required, not NoneType
storage dallas float argument required, not NoneType
storage dallas float argument required, not NoneType
storage dallas float argument required, not NoneType
storage dallas float argument required, not NoneType
storage dallas float argument required, not NoneType
storage dallas float argument required, not NoneType
storage dallas float argument required, not NoneType
storage dallas float argument required, not NoneType
storage dallas float argument required, not NoneType
storage dallas float argument required, not NoneType
storage dallas float argument required, not NoneType
storage dallas float argument required, not NoneType
storage dallas float argument required, not NoneType
storage dallas float argument required, not NoneType
storage dallas float argument required, not NoneType
storage dallas float argument required, not NoneType
storage dallas float argument required, not NoneType
storage dallas float argument required, not NoneType
storage dallas float argument required, not NoneType
storage dallas float argument required, not NoneType
storage dallas float argument required, not NoneType
storage dallas float argument required, not NoneType
storage dallas float argument required, not NoneType
storage dallas float argument required, not NoneType
storage dallas float argument required, not NoneType
storage dallas float argument required, not NoneType
storage dallas float argument required, not NoneType
storage dallas float argument required, not NoneType
storage dallas float argument required, not NoneType
storage dallas float argument required, not NoneType
storage dallas float argument required, not NoneType
storage dallas float argument required, not NoneType
storage dallas float argument required, not NoneType
storage dallas float argument required, not NoneType
storage dallas float argument required, not NoneType
storage dallas float argument required, not NoneType
storage dallas float argument required, not NoneType
storage dallas float argument required, not NoneType
storage dallas float argument required, not NoneType
storage dallas float argument required, not NoneType
storage dallas float argument required, not NoneType
storage dallas float argument required, not NoneType
storage dallas float argument required, not NoneType
storage dallas float argument required, not NoneType
storage dallas float argument required, not NoneType
storage dallas float argument required, not NoneType
storage dallas float argument required, not NoneType
storage dallas float argument required, not NoneType
storage dallas float argument required, not NoneType
storage dallas float argument required, not NoneType
storage dallas float argument required, not NoneType
storage dallas float argument required, not NoneType
storage dallas float argument required, not NoneType
storage dallas float argument required, not NoneType
storage dallas float argument required, not NoneType
storage dallas float argument required, not NoneType
storage dallas float argument required, not NoneType
storage dallas float argument required, not NoneType
storage dallas float argument required, not NoneType
storage dallas float argument required, not NoneType
storage dallas float argument required, not NoneType
storage dallas float argument required, not NoneType
storage dallas float argument required, not NoneType
storage dallas float argument required, not NoneType
storage dallas float argument required, not NoneType
storage dallas float argument required, not NoneType
storage dallas float argument required, not NoneType
storage dallas float argument required, not NoneType
storage dallas float argument required, not NoneType
storage dallas float argument required, not NoneType
storage dallas float argument required, not NoneType
storage dallas float argument required, not NoneType
storage dallas float argument required, not NoneType
storage dallas float argument required, not NoneType
storage dallas float argument required, not NoneType
storage dallas float argument required, not NoneType
storage dallas float argument required, not NoneType
storage dallas float argument required, not NoneType
storage dallas float argument required, not NoneType
storage dallas float argument required, not NoneType
storage dallas float argument required, not NoneType
storage dallas float argument required, not NoneType
storage dallas float argument required, not NoneType
storage dallas float argument required, not NoneType
storage dallas float argument required, not NoneType
storage dallas float argument required, not NoneType
storage dallas float argument required, not NoneType
storage dallas float argument required, not NoneType
storage dallas float argument required, not NoneType
storage dallas float argument required, not NoneType
storage dallas float argument required, not NoneType
storage dallas float argument required, not NoneType
storage dallas float argument required, not NoneType
storage dallas float argument required, not NoneType
storage dallas float argument required, not NoneType
storage dallas float argument required, not NoneType
storage dallas float argument required, not NoneType
storage dallas float argument required, not NoneType
storage dallas float argument required, not NoneType
storage dallas float argument required, not NoneType
storage dallas float argument required, not NoneType
storage dallas float argument required, not NoneType
storage dallas float argument required, not NoneType
storage dallas float argument required, not NoneType
storage dallas float argument required, not NoneType
storage dallas float argument required, not NoneType
storage dallas float argument required, not NoneType
storage dallas float argument required, not NoneType
storage dallas float argument required, not NoneType
storage dallas float argument required, not NoneType
storage dallas float argument required, not NoneType
storage dallas float argument required, not NoneType
storage dallas float argument required, not NoneType
storage dallas float argument required, not NoneType
storage dallas float argument required, not NoneType
storage dallas float argument required, not NoneType
storage dallas float argument required, not NoneType
storage dallas float argument required, not NoneType
storage dallas float argument required, not NoneType
storage dallas float argument required, not NoneType
storage dallas float argument required, not NoneType
storage dallas float argument required, not NoneType
storage dallas float argument required, not NoneType
storage dallas float argument required, not NoneType
storage dallas float argument required, not NoneType
storage dallas float argument required, not NoneType
storage dallas float argument required, not NoneType
storage dallas float argument required, not NoneType
storage dallas float argument required, not NoneType
storage dallas float argument required, not NoneType
storage dallas float argument required, not NoneType
storage dallas float argument required, not NoneType
storage dallas float argument required, not NoneType
storage dallas float argument required, not NoneType
storage dallas float argument required, not NoneType
storage dallas float argument required, not NoneType
storage dallas float argument required, not NoneType
storage dallas float argument required, not NoneType
storage dallas float argument required, not NoneType
storage dallas float argument required, not NoneType
storage dallas float argument required, not NoneType
storage dallas float argument required, not NoneType
storage dallas float argument required, not NoneType
storage dallas float argument required, not NoneType
storage dallas float argument required, not NoneType
storage dallas float argument required, not NoneType
storage dallas float argument required, not NoneType
storage dallas float argument required, not NoneType
storage dallas float argument required, not NoneType
storage dallas float argument required, not NoneType
storage dallas float argument required, not NoneType
storage dallas float argument required, not NoneType
storage dallas float argument required, not NoneType
storage dallas float argument required, not NoneType
storage dallas float argument required, not NoneType
storage dallas float argument required, not NoneType
storage dallas float argument required, not NoneType
storage dallas float argument required, not NoneType
storage dallas float argument required, not NoneType
storage dallas float argument required, not NoneType
storage dallas float argument required, not NoneType
storage dallas float argument required, not NoneType
storage dallas float argument required, not NoneType
storage dallas float argument required, not NoneType
storage dallas float argument required, not NoneType
storage dallas float argument required, not NoneType
storage dallas float argument required, not NoneType
storage dallas float argument required, not NoneType
storage dallas float argument required, not NoneType
storage dallas float argument required, not NoneType
storage dallas float argument required, not NoneType
storage dallas float argument required, not NoneType
storage dallas float argument required, not NoneType
storage dallas float argument required, not NoneType
storage dallas float argument required, not NoneType
storage dallas float argument required, not NoneType
storage dallas float argument required, not NoneType
storage dallas float argument required, not NoneType
storage dallas float argument required, not NoneType
storage dallas float argument required, not NoneType
storage dallas float argument required, not NoneType
storage dallas float argument required, not NoneType
storage dallas float argument required, not NoneType
storage dallas float argument required, not NoneType
storage dallas float argument required, not NoneType
storage dallas float argument required, not NoneType
storage dallas float argument required, not NoneType
storage dallas float argument required, not NoneType
storage dallas float argument required, not NoneType
storage dallas float argument required, not NoneType
storage dallas float argument required, not NoneType
storage dallas float argument required, not NoneType
storage dallas float argument required, not NoneType
storage dallas float argument required, not NoneType
storage dallas float argument required, not NoneType
storage dallas float argument required, not NoneType
storage dallas float argument required, not NoneType
storage dallas float argument required, not NoneType
storage dallas float argument required, not NoneType
storage dallas float argument required, not NoneType
storage dallas float argument required, not NoneType
storage dallas float argument required, not NoneType
storage dallas float argument required, not NoneType
storage dallas float argument required, not NoneType
storage dallas float argument required, not NoneType
storage dallas float argument required, not NoneType
storage dallas float argument required, not NoneType
storage dallas float argument required, not NoneType
storage dallas float argument required, not NoneType
storage dallas float argument required, not NoneType
storage dallas float argument required, not NoneType
storage dallas float argument required, not NoneType
storage dallas float argument required, not NoneType
storage dallas float argument required, not NoneType
storage dallas float argument required, not NoneType
storage dallas float argument required, not NoneType
storage dallas float argument required, not NoneType
storage dallas float argument required, not NoneType
storage dallas float argument required, not NoneType
storage dallas float argument required, not NoneType
storage dallas float argument required, not NoneType
storage dallas float argument required, not NoneType
storage dallas float argument required, not NoneType
storage dallas float argument required, not NoneType
storage dallas float argument required, not NoneType
storage dallas float argument required, not NoneType
storage dallas float argument required, not NoneType
storage dallas float argument required, not NoneType
storage dallas float argument required, not NoneType
storage dallas float argument required, not NoneType
storage dallas float argument required, not NoneType
storage dallas float argument required, not NoneType
storage dallas float argument required, not NoneType
storage dallas float argument required, not NoneType
storage dallas float argument required, not NoneType
storage dallas float argument required, not NoneType
storage dallas float argument required, not NoneType
storage dallas float argument required, not NoneType
storage dallas float argument required, not NoneType
storage dallas float argument required, not NoneType
storage dallas float argument required, not NoneType
storage dallas float argument required, not NoneType
storage dallas float argument required, not NoneType
storage dallas float argument required, not NoneType
storage dallas float argument required, not NoneType
storage dallas float argument required, not NoneType
storage dallas float argument required, not NoneType
storage dallas float argument required, not NoneType
storage dallas float argument required, not NoneType
storage dallas float argument required, not NoneType
storage dallas float argument required, not NoneType
storage dallas float argument required, not NoneType
storage dallas float argument required, not NoneType
storage dallas float argument required, not NoneType
storage dallas float argument required, not NoneType
storage dallas float argument required, not NoneType
storage dallas float argument required, not NoneType
storage dallas float argument required, not NoneType
storage dallas float argument required, not NoneType
storage dallas float argument required, not NoneType
storage dallas float argument required, not NoneType
storage dallas float argument required, not NoneType
storage dallas float argument required, not NoneType
storage dallas float argument required, not NoneType
storage dallas float argument required, not NoneType
storage dallas float argument required, not NoneType
storage dallas float argument required, not NoneType
storage dallas float argument required, not NoneType
storage dallas float argument required, not NoneType
storage dallas float argument required, not NoneType
storage dallas float argument required, not NoneType
storage dallas float argument required, not NoneType
storage dallas float argument required, not NoneType
storage dallas float argument required, not NoneType
storage dallas float argument required, not NoneType
storage dallas float argument required, not NoneType
storage dallas float argument required, not NoneType
storage dallas float argument required, not NoneType
storage dallas float argument required, not NoneType
storage dallas float argument required, not NoneType
storage dallas float argument required, not NoneType
storage dallas float argument required, not NoneType
storage dallas float argument required, not NoneType
storage dallas float argument required, not NoneType
storage dallas float argument required, not NoneType
storage dallas float argument required, not NoneType
storage dallas float argument required, not NoneType
storage dallas float argument required, not NoneType
storage dallas float argument required, not NoneType
storage dallas float argument required, not NoneType
storage dallas float argument required, not NoneType
storage dallas float argument required, not NoneType
storage dallas float argument required, not NoneType
storage dallas float argument required, not NoneType
storage dallas float argument required, not NoneType
storage dallas float argument required, not NoneType
storage dallas float argument required, not NoneType
storage dallas float argument required, not NoneType
storage dallas float argument required, not NoneType
storage dallas float argument required, not NoneType
storage dallas float argument required, not NoneType
storage dallas float argument required, not NoneType
storage dallas float argument required, not NoneType
storage dallas float argument required, not NoneType
storage dallas float argument required, not NoneType
storage dallas float argument required, not NoneType
storage dallas float argument required, not NoneType
storage dallas float argument required, not NoneType
storage dallas float argument required, not NoneType
storage dallas float argument required, not NoneType
storage dallas float argument required, not NoneType
storage dallas float argument required, not NoneType
storage dallas float argument required, not NoneType
storage dallas float argument required, not NoneType
storage dallas float argument required, not NoneType
storage dallas float argument required, not NoneType
storage dallas float argument required, not NoneType
storage dallas float argument required, not NoneType
storage dallas float argument required, not NoneType
storage dallas float argument required, not NoneType
storage dallas float argument required, not NoneType
storage dallas float argument required, not NoneType
storage dallas float argument required, not NoneType
storage dallas float argument required, not NoneType
storage dallas float argument required, not NoneType
storage dallas float argument required, not NoneType
storage dallas float argument required, not NoneType
storage dallas float argument required, not NoneType
storage dallas float argument required, not NoneType
storage dallas float argument required, not NoneType
storage dallas float argument required, not NoneType
storage dallas float argument required, not NoneType
storage dallas float argument required, not NoneType
storage dallas float argument required, not NoneType
storage dallas float argument required, not NoneType
storage dallas float argument required, not NoneType
storage dallas float argument required, not NoneType
storage dallas float argument required, not NoneType
storage dallas float argument required, not NoneType
storage dallas float argument required, not NoneType
storage dallas float argument required, not NoneType
storage dallas float argument required, not NoneType
storage dallas float argument required, not NoneType
storage dallas float argument required, not NoneType
storage dallas float argument required, not NoneType
storage dallas float argument required, not NoneType
storage dallas float argument required, not NoneType
storage dallas float argument required, not NoneType
storage dallas float argument required, not NoneType
storage dallas float argument required, not NoneType
storage dallas float argument required, not NoneType
storage dallas float argument required, not NoneType
storage dallas float argument required, not NoneType
storage dallas float argument required, not NoneType
storage dallas float argument required, not NoneType
storage dallas float argument required, not NoneType
storage dallas float argument required, not NoneType
storage dallas float argument required, not NoneType
storage dallas float argument required, not NoneType
storage dallas float argument required, not NoneType
storage dallas float argument required, not NoneType
storage dallas float argument required, not NoneType
storage dallas float argument required, not NoneType
storage dallas float argument required, not NoneType
storage dallas float argument required, not NoneType
storage dallas float argument required, not NoneType
storage dallas float argument required, not NoneType
storage dallas float argument required, not NoneType
storage dallas float argument required, not NoneType
storage dallas float argument required, not NoneType
storage dallas float argument required, not NoneType
storage dallas float argument required, not NoneType
storage dallas float argument required, not NoneType
storage dallas float argument required, not NoneType
storage dallas float argument required, not NoneType
storage dallas float argument required, not NoneType
storage dallas float argument required, not NoneType
storage dallas float argument required, not NoneType
storage dallas float argument required, not NoneType
storage dallas float argument required, not NoneType
storage dallas float argument required, not NoneType
storage dallas float argument required, not NoneType
storage dallas float argument required, not NoneType
storage dallas float argument required, not NoneType
storage dallas float argument required, not NoneType
storage dallas float argument required, not NoneType
storage dallas float argument required, not NoneType
storage dallas float argument required, not NoneType
storage dallas float argument required, not NoneType
storage dallas float argument required, not NoneType
storage dallas float argument required, not NoneType
storage dallas float argument required, not NoneType
storage dallas float argument required, not NoneType
storage dallas float argument required, not NoneType
storage dallas float argument required, not NoneType
storage dallas float argument required, not NoneType
storage dallas float argument required, not NoneType
storage dallas float argument required, not NoneType
storage dallas float argument required, not NoneType
storage dallas float argument required, not NoneType
storage dallas float argument required, not NoneType
storage dallas float argument required, not NoneType
storage dallas float argument required, not NoneType
storage dallas float argument required, not NoneType
storage dallas float argument required, not NoneType
storage dallas float argument required, not NoneType
storage dallas float argument required, not NoneType
storage dallas float argument required, not NoneType
storage dallas float argument required, not NoneType
storage dallas float argument required, not NoneType
storage dallas float argument required, not NoneType
storage dallas float argument required, not NoneType
storage dallas float argument required, not NoneType
storage dallas float argument required, not NoneType
storage dallas float argument required, not NoneType
storage dallas float argument required, not NoneType
storage dallas float argument required, not NoneType
storage dallas float argument required, not NoneType
storage dallas float argument required, not NoneType
storage dallas float argument required, not NoneType
storage dallas float argument required, not NoneType
storage dallas float argument required, not NoneType
storage dallas float argument required, not NoneType
storage dallas float argument required, not NoneType
storage dallas float argument required, not NoneType
storage dallas float argument required, not NoneType
storage dallas float argument required, not NoneType
storage dallas float argument required, not NoneType
storage dallas float argument required, not NoneType
storage dallas float argument required, not NoneType
storage dallas float argument required, not NoneType
storage dallas float argument required, not NoneType
storage dallas float argument required, not NoneType
storage dallas float argument required, not NoneType
storage dallas float argument required, not NoneType
storage dallas float argument required, not NoneType
storage dallas float argument required, not NoneType
storage dallas float argument required, not NoneType
storage dallas float argument required, not NoneType
storage dallas float argument required, not NoneType
storage dallas float argument required, not NoneType
storage dallas float argument required, not NoneType
storage dallas float argument required, not NoneType
storage dallas float argument required, not NoneType
storage dallas float argument required, not NoneType
storage dallas float argument required, not NoneType
storage dallas float argument required, not NoneType
storage dallas float argument required, not NoneType
storage dallas float argument required, not NoneType
storage dallas float argument required, not NoneType
storage dallas float argument required, not NoneType
storage dallas float argument required, not NoneType
storage dallas float argument required, not NoneType
storage dallas float argument required, not NoneType
storage dallas float argument required, not NoneType
storage dallas float argument required, not NoneType
storage dallas float argument required, not NoneType
storage dallas float argument required, not NoneType
storage dallas float argument required, not NoneType
storage dallas float argument required, not NoneType
storage dallas float argument required, not NoneType
storage dallas float argument required, not NoneType
storage dallas float argument required, not NoneType
storage dallas float argument required, not NoneType
storage dallas float argument required, not NoneType
storage dallas float argument required, not NoneType
storage dallas float argument required, not NoneType
storage dallas float argument required, not NoneType
storage dallas float argument required, not NoneType
storage dallas float argument required, not NoneType
storage dallas float argument required, not NoneType
storage dallas float argument required, not NoneType
storage dallas float argument required, not NoneType
storage dallas float argument required, not NoneType
storage dallas float argument required, not NoneType
storage dallas float argument required, not NoneType
storage dallas float argument required, not NoneType
storage dallas float argument required, not NoneType
storage dallas float argument required, not NoneType
storage dallas float argument required, not NoneType
storage dallas float argument required, not NoneType
storage dallas float argument required, not NoneType
storage dallas float argument required, not NoneType
storage dallas float argument required, not NoneType
storage dallas float argument required, not NoneType
storage dallas float argument required, not NoneType
storage dallas float argument required, not NoneType
storage dallas float argument required, not NoneType
storage dallas float argument required, not NoneType
storage dallas float argument required, not NoneType
storage dallas float argument required, not NoneType
storage dallas float argument required, not NoneType
storage dallas float argument required, not NoneType
storage dallas float argument required, not NoneType
storage dallas float argument required, not NoneType
storage dallas float argument required, not NoneType
storage dallas float argument required, not NoneType
storage dallas float argument required, not NoneType
storage dallas float argument required, not NoneType
storage dallas float argument required, not NoneType
storage dallas float argument required, not NoneType
storage dallas float argument required, not NoneType
storage dallas float argument required, not NoneType
storage dallas float argument required, not NoneType
storage dallas float argument required, not NoneType
storage dallas float argument required, not NoneType
storage dallas float argument required, not NoneType
storage dallas float argument required, not NoneType
storage dallas float argument required, not NoneType
storage dallas float argument required, not NoneType
storage dallas float argument required, not NoneType
storage dallas float argument required, not NoneType
storage dallas float argument required, not NoneType
storage dallas float argument required, not NoneType
storage dallas float argument required, not NoneType
storage dallas float argument required, not NoneType
storage dallas float argument required, not NoneType
storage dallas float argument required, not NoneType
storage dallas float argument required, not NoneType
storage dallas float argument required, not NoneType
storage dallas float argument required, not NoneType
storage dallas float argument required, not NoneType
storage dallas float argument required, not NoneType
storage dallas float argument required, not NoneType
storage dallas float argument required, not NoneType
storage dallas float argument required, not NoneType
storage dallas float argument required, not NoneType
storage dallas float argument required, not NoneType
storage dallas float argument required, not NoneType
storage dallas float argument required, not NoneType
storage dallas float argument required, not NoneType
storage dallas float argument required, not NoneType
storage dallas float argument required, not NoneType
storage dallas float argument required, not NoneType
storage dallas float argument required, not NoneType
storage dallas float argument required, not NoneType
storage dallas float argument required, not NoneType
storage dallas float argument required, not NoneType
storage dallas float argument required, not NoneType
storage dallas float argument required, not NoneType
storage dallas float argument required, not NoneType
storage dallas float argument required, not NoneType
storage dallas float argument required, not NoneType
storage dallas float argument required, not NoneType
storage dallas float argument required, not NoneType
storage dallas float argument required, not NoneType
storage dallas float argument required, not NoneType
storage dallas float argument required, not NoneType
storage dallas float argument required, not NoneType
storage dallas float argument required, not NoneType
storage dallas float argument required, not NoneType
storage dallas float argument required, not NoneType
storage dallas float argument required, not NoneType
storage dallas float argument required, not NoneType
storage dallas float argument required, not NoneType
storage dallas float argument required, not NoneType
storage dallas float argument required, not NoneType
storage dallas float argument required, not NoneType
storage dallas float argument required, not NoneType
storage dallas float argument required, not NoneType
storage dallas float argument required, not NoneType
storage dallas float argument required, not NoneType
storage dallas float argument required, not NoneType
storage dallas float argument required, not NoneType
storage dallas float argument required, not NoneType
storage dallas float argument required, not NoneType
storage dallas float argument required, not NoneType
storage dallas float argument required, not NoneType
storage dallas float argument required, not NoneType
storage dallas float argument required, not NoneType
storage dallas float argument required, not NoneType
storage dallas float argument required, not NoneType
storage dallas float argument required, not NoneType
storage dallas float argument required, not NoneType
storage dallas float argument required, not NoneType
storage dallas float argument required, not NoneType
storage dallas float argument required, not NoneType
storage dallas float argument required, not NoneType
storage dallas float argument required, not NoneType
storage dallas float argument required, not NoneType
storage dallas float argument required, not NoneType
storage dallas float argument required, not NoneType
storage dallas float argument required, not NoneType
storage dallas float argument required, not NoneType
storage dallas float argument required, not NoneType
storage dallas float argument required, not NoneType
storage dallas float argument required, not NoneType
storage dallas float argument required, not NoneType
storage dallas float argument required, not NoneType
storage dallas float argument required, not NoneType
storage dallas float argument required, not NoneType
storage dallas float argument required, not NoneType
storage dallas float argument required, not NoneType
storage dallas float argument required, not NoneType
storage dallas float argument required, not NoneType
storage dallas float argument required, not NoneType
storage dallas float argument required, not NoneType
storage dallas float argument required, not NoneType
storage dallas float argument required, not NoneType
storage dallas float argument required, not NoneType
storage dallas float argument required, not NoneType
storage dallas float argument required, not NoneType
storage dallas float argument required, not NoneType
storage dallas float argument required, not NoneType
storage dallas float argument required, not NoneType
storage dallas float argument required, not NoneType
storage dallas float argument required, not NoneType
storage dallas float argument required, not NoneType
storage dallas float argument required, not NoneType
storage dallas float argument required, not NoneType
storage dallas float argument required, not NoneType
storage dallas float argument required, not NoneType
storage dallas float argument required, not NoneType
storage dallas float argument required, not NoneType
storage dallas float argument required, not NoneType
storage dallas float argument required, not NoneType
storage dallas float argument required, not NoneType
storage dallas float argument required, not NoneType
storage dallas float argument required, not NoneType
storage dallas float argument required, not NoneType
storage dallas float argument required, not NoneType
storage dallas float argument required, not NoneType
storage dallas float argument required, not NoneType
storage dallas float argument required, not NoneType
storage dallas float argument required, not NoneType
storage dallas float argument required, not NoneType
storage dallas float argument required, not NoneType
storage dallas float argument required, not NoneType
storage dallas float argument required, not NoneType
storage dallas float argument required, not NoneType
storage dallas float argument required, not NoneType
storage dallas float argument required, not NoneType
storage dallas float argument required, not NoneType
storage dallas float argument required, not NoneType
storage dallas float argument required, not NoneType
storage dallas float argument required, not NoneType
storage dallas float argument required, not NoneType
storage dallas float argument required, not NoneType
storage dallas float argument required, not NoneType
storage dallas float argument required, not NoneType
storage dallas float argument required, not NoneType
storage dallas float argument required, not NoneType
storage dallas float argument required, not NoneType
storage dallas float argument required, not NoneType
storage dallas float argument required, not NoneType
storage dallas float argument required, not NoneType
storage dallas float argument required, not NoneType
storage dallas float argument required, not NoneType
storage dallas float argument required, not NoneType
storage dallas float argument required, not NoneType
storage dallas float argument required, not NoneType
storage dallas float argument required, not NoneType
storage dallas float argument required, not NoneType
storage dallas float argument required, not NoneType
storage dallas float argument required, not NoneType
storage dallas float argument required, not NoneType
storage dallas float argument required, not NoneType
storage dallas float argument required, not NoneType
storage dallas float argument required, not NoneType
storage dallas float argument required, not NoneType
storage dallas float argument required, not NoneType
storage dallas float argument required, not NoneType
storage dallas float argument required, not NoneType
storage dallas float argument required, not NoneType
storage dallas float argument required, not NoneType
storage dallas float argument required, not NoneType
storage dallas float argument required, not NoneType
storage dallas float argument required, not NoneType
storage dallas float argument required, not NoneType
storage dallas float argument required, not NoneType
storage dallas float argument required, not NoneType
storage dallas float argument required, not NoneType
storage dallas float argument required, not NoneType
storage dallas float argument required, not NoneType
storage dallas float argument required, not NoneType
storage dallas float argument required, not NoneType
storage dallas float argument required, not NoneType
storage dallas float argument required, not NoneType
storage dallas float argument required, not NoneType
storage dallas float argument required, not NoneType
storage dallas float argument required, not NoneType
storage dallas float argument required, not NoneType
storage dallas float argument required, not NoneType
storage dallas float argument required, not NoneType
storage dallas float argument required, not NoneType
storage dallas float argument required, not NoneType
storage dallas float argument required, not NoneType
storage dallas float argument required, not NoneType
storage dallas float argument required, not NoneType
storage dallas float argument required, not NoneType
storage dallas float argument required, not NoneType
storage dallas float argument required, not NoneType
storage dallas float argument required, not NoneType
storage dallas float argument required, not NoneType
storage dallas float argument required, not NoneType
storage dallas float argument required, not NoneType
storage dallas float argument required, not NoneType
storage dallas float argument required, not NoneType
storage dallas float argument required, not NoneType
storage dallas float argument required, not NoneType
storage dallas float argument required, not NoneType
storage dallas float argument required, not NoneType
storage dallas float argument required, not NoneType
storage dallas float argument required, not NoneType
storage dallas float argument required, not NoneType
storage dallas float argument required, not NoneType
storage dallas float argument required, not NoneType
storage dallas float argument required, not NoneType
storage dallas float argument required, not NoneType
storage dallas float argument required, not NoneType
storage dallas float argument required, not NoneType
storage dallas float argument required, not NoneType
storage dallas float argument required, not NoneType
storage dallas float argument required, not NoneType
storage dallas float argument required, not NoneType
storage dallas float argument required, not NoneType
storage dallas float argument required, not NoneType
storage dallas float argument required, not NoneType
storage dallas float argument required, not NoneType
storage dallas float argument required, not NoneType
storage dallas float argument required, not NoneType
storage dallas float argument required, not NoneType
storage dallas float argument required, not NoneType
[...]
storage dallas float argument required, not NoneType
storage dallas float argument required, not NoneType
storage dallas float argument required, not NoneType
storage dallas float argument required, not NoneType
storage dallas float argument required, not NoneType
storage dallas float argument required, not NoneType
storage dallas float argument required, not NoneType
storage dallas float argument required, not NoneType
storage dallas float argument required, not NoneType
storage dallas float argument required, not NoneType
storage dallas float argument required, not NoneType
storage dallas float argument required, not NoneType
storage dallas float argument required, not NoneType
storage dallas float argument required, not NoneType
storage dallas float argument required, not NoneType
storage dallas float argument required, not NoneType
storage dallas float argument required, not NoneType
storage dallas float argument required, not NoneType
storage dallas float argument required, not NoneType
storage dallas float argument required, not NoneType
storage dallas float argument required, not NoneType
storage dallas float argument required, not NoneType
storage dallas float argument required, not NoneType
storage dallas float argument required, not NoneType
storage dallas float argument required, not NoneType
storage dallas float argument required, not NoneType
storage dallas float argument required, not NoneType
storage dallas float argument required, not NoneType
storage dallas float argument required, not NoneType
storage dallas float argument required, not NoneType
storage dallas float argument required, not NoneType
storage dallas float argument required, not NoneType
storage dallas float argument required, not NoneType
storage dallas float argument required, not NoneType
storage dallas float argument required, not NoneType
storage dallas float argument required, not NoneType
storage dallas float argument required, not NoneType
storage dallas float argument required, not NoneType
storage dallas float argument required, not NoneType
storage dallas float argument required, not NoneType
storage dallas float argument required, not NoneType
storage dallas float argument required, not NoneType
storage dallas float argument required, not NoneType
storage dallas float argument required, not NoneType
storage dallas float argument required, not NoneType
storage dallas float argument required, not NoneType
storage dallas float argument required, not NoneType
storage dallas float argument required, not NoneType
storage dallas float argument required, not NoneType
storage dallas float argument required, not NoneType
storage dallas float argument required, not NoneType
storage dallas float argument required, not NoneType
storage dallas float argument required, not NoneType
storage dallas float argument required, not NoneType
storage dallas float argument required, not NoneType
storage dallas float argument required, not NoneType
storage dallas float argument required, not NoneType
storage dallas float argument required, not NoneType
storage dallas float argument required, not NoneType
storage dallas float argument required, not NoneType
storage dallas float argument required, not NoneType
storage dallas float argument required, not NoneType
storage dallas float argument required, not NoneType
storage dallas float argument required, not NoneType
storage dallas float argument required, not NoneType
storage dallas float argument required, not NoneType
storage dallas float argument required, not NoneType
storage dallas float argument required, not NoneType
storage dallas float argument required, not NoneType
storage dallas float argument required, not NoneType
storage dallas float argument required, not NoneType
storage dallas float argument required, not NoneType
storage dallas float argument required, not NoneType
storage dallas float argument required, not NoneType
storage dallas float argument required, not NoneType
storage dallas float argument required, not NoneType
storage dallas float argument required, not NoneType
storage dallas float argument required, not NoneType
storage dallas float argument required, not NoneType
storage dallas float argument required, not NoneType
storage dallas float argument required, not NoneType
storage dallas float argument required, not NoneType
storage dallas float argument required, not NoneType
storage dallas float argument required, not NoneType
storage dallas float argument required, not NoneType
storage dallas float argument required, not NoneType
storage dallas float argument required, not NoneType
storage dallas float argument required, not NoneType
storage dallas float argument required, not NoneType
storage dallas float argument required, not NoneType
storage dallas float argument required, not NoneType
storage dallas float argument required, not NoneType
storage dallas float argument required, not NoneType
storage dallas float argument required, not NoneType
storage dallas float argument required, not NoneType
storage dallas float argument required, not NoneType
storage dallas float argument required, not NoneType
storage dallas float argument required, not NoneType
storage dallas float argument required, not NoneType
storage dallas float argument required, not NoneType
storage dallas float argument required, not NoneType
storage dallas float argument required, not NoneType
storage dallas float argument required, not NoneType
storage dallas float argument required, not NoneType
storage dallas float argument required, not NoneType
storage dallas float argument required, not NoneType
storage dallas float argument required, not NoneType
storage dallas float argument required, not NoneType
storage dallas float argument required, not NoneType
storage dallas float argument required, not NoneType
storage dallas float argument required, not NoneType
storage dallas float argument required, not NoneType
storage dallas float argument required, not NoneType
storage dallas float argument required, not NoneType
storage dallas float argument required, not NoneType
storage dallas float argument required, not NoneType
storage dallas float argument required, not NoneType
storage dallas float argument required, not NoneType
storage dallas float argument required, not NoneType
storage dallas float argument required, not NoneType
storage dallas float argument required, not NoneType
storage dallas float argument required, not NoneType
storage dallas float argument required, not NoneType
storage dallas float argument required, not NoneType
storage dallas float argument required, not NoneType
storage dallas float argument required, not NoneType
storage dallas float argument required, not NoneType
storage dallas float argument required, not NoneType
storage dallas float argument required, not NoneType
storage dallas float argument required, not NoneType
storage dallas float argument required, not NoneType
storage dallas float argument required, not NoneType
storage dallas float argument required, not NoneType
storage dallas float argument required, not NoneType
storage dallas float argument required, not NoneType
storage dallas float argument required, not NoneType
storage dallas float argument required, not NoneType
storage dallas float argument required, not NoneType
storage dallas float argument required, not NoneType
storage dallas float argument required, not NoneType
storage dallas float argument required, not NoneType
storage dallas float argument required, not NoneType
storage dallas float argument required, not NoneType
storage dallas float argument required, not NoneType
storage dallas float argument required, not NoneType
storage dallas float argument required, not NoneType
storage dallas float argument required, not NoneType
storage dallas float argument required, not NoneType
storage dallas float argument required, not NoneType
storage dallas float argument required, not NoneType
storage dallas float argument required, not NoneType
storage dallas float argument required, not NoneType
storage dallas float argument required, not NoneType
storage dallas float argument required, not NoneType
storage dallas float argument required, not NoneType
storage dallas float argument required, not NoneType
storage dallas float argument required, not NoneType
storage dallas float argument required, not NoneType
storage dallas float argument required, not NoneType
storage dallas float argument required, not NoneType
storage dallas float argument required, not NoneType
storage dallas float argument required, not NoneType
storage dallas float argument required, not NoneType
storage dallas float argument required, not NoneType
storage dallas float argument required, not NoneType
storage dallas float argument required, not NoneType
storage dallas float argument required, not NoneType
storage dallas float argument required, not NoneType
storage dallas float argument required, not NoneType
storage dallas float argument required, not NoneType
storage dallas float argument required, not NoneType
storage dallas float argument required, not NoneType
storage dallas float argument required, not NoneType
storage dallas float argument required, not NoneType
storage dallas float argument required, not NoneType
storage dallas float argument required, not NoneType
storage dallas float argument required, not NoneType
storage dallas float argument required, not NoneType
storage dallas float argument required, not NoneType
storage dallas float argument required, not NoneType
storage dallas float argument required, not NoneType
storage dallas float argument required, not NoneType
storage dallas float argument required, not NoneType
storage dallas float argument required, not NoneType
storage dallas float argument required, not NoneType
storage dallas float argument required, not NoneType
storage dallas float argument required, not NoneType
storage dallas float argument required, not NoneType
storage dallas float argument required, not NoneType
storage dallas float argument required, not NoneType
storage dallas float argument required, not NoneType
storage dallas float argument required, not NoneType
storage dallas float argument required, not NoneType
storage dallas float argument required, not NoneType
storage dallas float argument required, not NoneType
storage dallas float argument required, not NoneType
storage dallas float argument required, not NoneType
storage dallas float argument required, not NoneType
storage dallas float argument required, not NoneType
storage dallas float argument required, not NoneType
storage dallas float argument required, not NoneType
storage dallas float argument required, not NoneType
storage dallas float argument required, not NoneType
storage dallas float argument required, not NoneType
storage dallas float argument required, not NoneType
storage dallas float argument required, not NoneType
storage dallas float argument required, not NoneType
storage dallas float argument required, not NoneType
storage dallas float argument required, not NoneType
storage dallas float argument required, not NoneType
storage dallas float argument required, not NoneType
storage dallas float argument required, not NoneType
storage dallas float argument required, not NoneType
storage dallas float argument required, not NoneType
storage dallas float argument required, not NoneType
storage dallas float argument required, not NoneType
storage dallas float argument required, not NoneType
storage dallas float argument required, not NoneType
storage dallas float argument required, not NoneType
paglcd (2006, 'MySQL server has gone away')
db man control (2006, 'MySQL server has gone away')
-----
*** PROGRAM STARTED AT Fri Aug 20 13:50:51 2010 WITH PID 1285 ***
storage dallas float argument required, not NoneType
storage dallas float argument required, not NoneType
storage dallas float argument required, not NoneType
storage dallas float argument required, not NoneType
storage dallas float argument required, not NoneType
storage dallas float argument required, not NoneType
storage dallas float argument required, not NoneType
storage dallas float argument required, not NoneType
storage dallas float argument required, not NoneType
storage dallas float argument required, not NoneType
storage dallas float argument required, not NoneType
storage dallas float argument required, not NoneType
storage dallas float argument required, not NoneType
storage dallas float argument required, not NoneType
storage dallas float argument required, not NoneType
storage dallas float argument required, not NoneType
storage dallas float argument required, not NoneType
storage dallas float argument required, not NoneType
storage dallas float argument required, not NoneType
storage dallas float argument required, not NoneType
storage dallas float argument required, not NoneType
storage dallas float argument required, not NoneType
storage dallas float argument required, not NoneType
storage dallas float argument required, not NoneType
storage dallas float argument required, not NoneType
storage dallas float argument required, not NoneType
storage dallas float argument required, not NoneType
storage dallas float argument required, not NoneType
storage dallas float argument required, not NoneType
storage dallas float argument required, not NoneType
storage dallas float argument required, not NoneType
storage dallas float argument required, not NoneType
storage dallas float argument required, not NoneType
storage dallas float argument required, not NoneType
storage dallas float argument required, not NoneType
storage dallas float argument required, not NoneType
storage dallas float argument required, not NoneType
storage dallas float argument required, not NoneType
storage dallas float argument required, not NoneType
storage dallas float argument required, not NoneType
storage dallas float argument required, not NoneType
storage dallas float argument required, not NoneType
storage dallas float argument required, not NoneType
storage dallas float argument required, not NoneType
storage dallas float argument required, not NoneType
storage dallas float argument required, not NoneType
storage dallas float argument required, not NoneType
storage dallas float argument required, not NoneType
storage dallas float argument required, not NoneType
storage dallas float argument required, not NoneType
storage dallas float argument required, not NoneType
storage dallas float argument required, not NoneType
storage dallas float argument required, not NoneType
storage dallas float argument required, not NoneType
storage dallas float argument required, not NoneType
storage dallas float argument required, not NoneType
storage dallas float argument required, not NoneType
storage dallas float argument required, not NoneType
storage dallas float argument required, not NoneType
storage dallas float argument required, not NoneType
storage dallas float argument required, not NoneType
storage dallas float argument required, not NoneType
storage dallas float argument required, not NoneType
storage dallas float argument required, not NoneType
storage dallas float argument required, not NoneType
paglcd (2006, 'MySQL server has gone away')
*** PROGRAM STOPPED AT Sat Aug 28 04:13:36 2010 ***
-----
*** PROGRAM STARTED AT Fri Aug 20 13:50:47 2010 WITH PID 1298 ***
storage dallas float argument required, not NoneType
storage dallas float argument required, not NoneType
storage dallas float argument required, not NoneType
storage dallas float argument required, not NoneType
storage dallas float argument required, not NoneType
storage dallas float argument required, not NoneType
storage dallas float argument required, not NoneType
-----
*** PROGRAM STARTED AT Fri Aug 20 13:50:51 2010 WITH PID 1287 ***
storage dallas (2006, 'MySQL server has gone away')
db man control (2006, 'MySQL server has gone away')
-----
*** PROGRAM STARTED AT Wed Aug  6 17:23:14 2014 WITH PID 1303 ***
db man control (2006, 'MySQL server has gone away')
-----
*** PROGRAM STARTED AT Wed Aug  6 17:37:51 2014 WITH PID 1294 ***
storage dallas float argument required, not NoneType
storage dallas float argument required, not NoneType
storage dallas float argument required, not NoneType
storage dallas float argument required, not NoneType
paglcd (2006, 'MySQL server has gone away')
-----
*** PROGRAM STARTED AT Wed Aug  6 17:54:11 2014 WITH PID 1288 ***
storage dallas float argument required, not NoneType
storage dallas float argument required, not NoneType
storage dallas float argument required, not NoneType
storage dallas float argument required, not NoneType
storage dallas float argument required, not NoneType
storage dallas float argument required, not NoneType
storage dallas float argument required, not NoneType
storage dallas float argument required, not NoneType
storage dallas float argument required, not NoneType
storage dallas float argument required, not NoneType
storage dallas float argument required, not NoneType
storage dallas float argument required, not NoneType
storage dallas float argument required, not NoneType
storage dallas float argument required, not NoneType
storage dallas float argument required, not NoneType
storage dallas float argument required, not NoneType
storage dallas float argument required, not NoneType
storage dallas float argument required, not NoneType
storage dallas float argument required, not NoneType
storage dallas float argument required, not NoneType
storage dallas float argument required, not NoneType
storage dallas float argument required, not NoneType
storage dallas float argument required, not NoneType
storage dallas float argument required, not NoneType
storage dallas float argument required, not NoneType
storage dallas float argument required, not NoneType
storage dallas float argument required, not NoneType
storage dallas float argument required, not NoneType
storage dallas float argument required, not NoneType
storage dallas float argument required, not NoneType
storage dallas float argument required, not NoneType
storage dallas float argument required, not NoneType
storage dallas float argument required, not NoneType
storage dallas float argument required, not NoneType
storage dallas float argument required, not NoneType
storage dallas float argument required, not NoneType
storage dallas float argument required, not NoneType
storage dallas float argument required, not NoneType
storage dallas float argument required, not NoneType
storage dallas float argument required, not NoneType
storage dallas float argument required, not NoneType
storage dallas float argument required, not NoneType
storage dallas float argument required, not NoneType
storage dallas float argument required, not NoneType
storage dallas float argument required, not NoneType
storage dallas float argument required, not NoneType
storage dallas float argument required, not NoneType
storage dallas float argument required, not NoneType
storage dallas float argument required, not NoneType
storage dallas float argument required, not NoneType
storage dallas float argument required, not NoneType
storage dallas float argument required, not NoneType
storage dallas float argument required, not NoneType
storage dallas float argument required, not NoneType
storage dallas float argument required, not NoneType
storage dallas float argument required, not NoneType
-----
*** PROGRAM STARTED AT Wed Aug 13 16:33:14 2014 WITH PID 1292 ***
storage dallas float argument required, not NoneType
storage dallas float argument required, not NoneType
storage dallas float argument required, not NoneType
storage dallas float argument required, not NoneType
storage dallas float argument required, not NoneType
storage dallas float argument required, not NoneType
storage dallas float argument required, not NoneType
storage dallas float argument required, not NoneType
storage dallas float argument required, not NoneType
